% Model:              cyclotron_simulation (1).mph
% Version:            COMSOL 6.3.0.420
% Date:               Jun 4 2025, 13:40
% Dimension:          3
% Nodes:              3890
% Expressions:        1
% Description:        Magnetic flux density, z-component
% Length unit:        in
% x                       y                        z                        mf.Bz (T)
-125                      -1.2434497875801753E-14  -48.59705050212191       1.8969539745168628E-5
-119.10910327717173       0                        -49.62921979112981       -1.3686690580902678E-5
-122.08655001648468       0                        -53.433983535168366      5.95577237636202E-5
-125                      8.881784197001252E-16    -57.39803366808128       3.472088195890572E-5
-116.97112179763297       -2.220446049250313E-16   -39.815730789054754      8.625712943415549E-5
-117.94112457619009       0                        -43.0051128112821        -5.4777121051931724E-5
-116.17485486757883       0                        -42.52383178776675       3.0308029681999654E-5
-125                      0                        -39.79606733616258       4.5784431810374486E-5
-119.88269772704462       2.220446049250313E-16    -42.95892372034457       -3.634422112231811E-5
-118.01966425581097       0                        -45.178455700657324      -4.413251610057008E-5
-125                      -3.9968028886505635E-15  -66.19901683404065       1.0578860211514497E-5
-121.08939796017742       2.220446049250313E-16    -60.18503619732131       6.43023882588019E-5
-113.78232830503148       4.440892098500626E-16    -48.50288049238437       1.8858316925317263E-5
-114.50390400525801       2.220446049250313E-16    -45.71132148218687       4.880916863451926E-5
-111.08559185282013       2.220446049250313E-16    -47.41419091678109       5.298981931158235E-6
-117.22729419233735       0                        -54.31038184403183       -7.891446345115334E-6
-119.61197410374312       2.220446049250313E-16    -57.07187171014881       1.5716300746027647E-6
-117.94924291718871       4.440892098500626E-16    -59.24269981412361       4.312713079591731E-5
-113.37307275067725       0                        -51.68846358470269       -4.0068362564919185E-5
-115.63690686180502       0                        -56.96133591675623       2.2108672173539183E-5
-125                      -6.394884621840902E-14   -30.995084170203206      -1.78351529049484E-5
-121.18077657542965       0                        -38.88994050544267       -4.904911587920598E-5
-116.02910832546422       -2.220446049250313E-16   -35.34342090780393       5.735655360645582E-5
-114.40055056699839       -2.220446049250313E-16   -35.49554219049473       -4.149162166878674E-5
-111.60711169983077       0                        -37.919692603855324      2.918924304417694E-5
-113.45046667221382       0                        -38.87804895882434       -7.669467380823961E-5
-110.30921509795964       2.220446049250313E-16    -45.01406250234115       -6.442465050164884E-5
-110.14771931762311       -4.440892098500626E-16   -40.624729367507896      -1.709749790139322E-5
-111.91755541565507       0                        -41.36378390400145       -2.4344949370607718E-5
-108.0663026504653        -2.220446049250313E-16   -41.7157533606638        9.253163106924613E-5
-114.6675035427296        2.220446049250313E-16    -33.43410124116917       -3.292672546242766E-5
-116.19972883979327       2.220446049250313E-16    -31.655854432174056      -4.950445333178074E-6
-114.96101407438226       4.440892098500626E-16    -28.132945814272873      4.568106082861557E-5
-112.81922028264702       2.220446049250313E-16    -29.7721436387013        -1.696648372560659E-5
-108.99999999999999       -3.552713678800501E-15   -36                      5.51986758822394E-5
-104.37960019790117       2.220446049250313E-16    -40.94542338046101       -5.615215617847454E-5
-110.82331602183191       4.440892098500626E-16    -29.40705688652831       -8.454400275644932E-5
-112.82285272140564       4.440892098500626E-16    -32.71363478571459       -1.3904351779186276E-4
-108.99999999999999       -2.220446049250313E-16   -30.60851014503008       8.298167157927095E-5
-103.83632642054046       6.661338147750939E-16    -38.6196333959106        2.9086277808342594E-4
-117                      2.220446049250313E-16    -25.385917012208967      -3.912821203555319E-6
-119.43486991043378       0                        -23.103089965945486      6.999941769831545E-6
-117                      0                        -23.502655121942908      -5.063286897385442E-6
-125                      4.440892098500626E-16    -22.194101004243862      -1.113737107451382E-5
-112.91608095170616       2.220446049250313E-16    -24.250091408171457      2.6574002078792427E-5
-113.00000000000003       -2.220446049250313E-16   -22.084525340889883      3.400015012065129E-5
-114.87159666669474       2.220446049250313E-16    -22.75345461099849       -2.460820601885643E-5
-116.99999999999999       -2.220446049250313E-16   -21.670670193589814      4.0965154735624165E-6
-125                      0                        -14.597637395404123      2.4609816354553517E-5
-123.23766937645544       -2.220446049250313E-16   -14.420443517999574      -1.6160494842040165E-5
-118.91851314976941       2.220446049250313E-16    -62.9769655127033        1.5381808835150103E-5
-117.9048135505662        -2.220446049250313E-16   -67.45858410159009       1.8071025512747225E-6
-119.14947392677132       -2.220446049250313E-16   -69.69907447415697       -6.702439584761054E-5
-125                      0                        -75                      -3.0732520668060427E-6
-116.38473002241977       0                        -61.28524218223082       2.3078310399123117E-5
-113.08859154736886       0                        -59.40526839966699       7.324051417368326E-6
-116.3185662964141        1.1102230246251565E-16   -66.17137593723703       7.090087755974732E-5
-116.19901683404063       -1.4210854715202004E-14  -75                      -1.6341314990267475E-4
-100.66666904296065       -2.220446049250313E-16   -39.88663302604347       4.487851888156398E-5
-110.85005041665397       2.220446049250313E-16    -66.4009905443582        4.046423184691625E-5
-105.39367073935288       0                        -59.38710792618485       1.1799563467052752E-4
-105.40532061511351       3.469446951953614E-18    -59.39259278585517       7.419248855027058E-5
-105.40623278019392       0                        -59.3774267723511        1.4886519972750963E-4
-105.49610310476388       0                        -59.56788803347817       3.12314871482045E-5
-105.42440509890284       0                        -59.38530306530323       5.1772889080779123E-5
-105.39701588563194       0                        -59.406812129970604      -3.694558298118253E-5
-105.3528961732494        0                        -59.38511678335143       -4.5551324267742294E-5
-108.39987842037513       0                        -53.641743061265046      1.2290070017954597E-5
-108.58070223472924       2.220446049250313E-16    -49.485589108605794      -6.299272199868784E-5
-106.88813441345309       -4.440892098500626E-16   -52.03770378924458       -2.462753708998744E-5
-103.91457443089988       2.220446049250313E-16    -43.357965282467966      6.495219580813537E-5
-102.26620880638295       0                        -45.284567535749446      2.6699325041501662E-5
-100.56469936121867       -1.1102230246251565E-16  -40.67503224258199       2.3926045380043374E-4
-107.27605861897712       0                        -46.4258658697903        -1.2955287374410388E-4
-99.93950149860717        -3.3306690738754696E-16  -39.65278066924842       -5.9798511240479535E-5
-105.37967594235715       0                        -59.351569274152574      7.477962103533643E-5
-102.7399171654439        0                        -47.93931018098713       -2.8137064444659812E-5
-104.41811146478852       2.220446049250313E-16    -51.85556772438999       8.4592406462928E-5
-100.59944216559717       -5.551115123125783E-17   -39.03865542852451       -7.644115578756638E-5
-103.73299818569097       -4.440892098500626E-16   -36.00000000000001       -2.6374039256868388E-6
-97.48062808717846        -1.1102230246251565E-16  -36.00000000000001       -4.761958832032144E-4
-97.3665402421678         -2.220446049250313E-16   -36.04583686484097       -4.967077862530956E-4
-95.39563240737901        -2.220446049250313E-16   -39.652902239813024      3.4615886160290885E-5
-94.72415572366509        -3.3306690738754696E-16  -39.07389504695647       3.6086482989009396E-5
-97.25567462252947        -1.5265566588595902E-16  -36.00000000000001       -2.1240077691151124E-4
-97.33563680932745        -3.608224830031759E-16   -36.00000000000001       -4.3499885587490017E-4
-125                      -4.440892098500626E-16   -13.16964785205984       6.504568984679995E-6
-108.99999999999999       0                        -25.32226422025777       1.0009347028039845E-4
-108.99999999999999       0                        -26.136406803534264      3.7673632570226184E-5
-109.47932614928759       0                        -25.67519357876756       -5.032603340613764E-5
-109.36873081945679       -5.551115123125783E-17   -25.01823230455243       1.523714263718712E-5
-92.540559723307          -3.920475055707584E-16   -36.00000000000001       -1.8031351120379588E-4
-113.00000000000003       0                        -19.810538429522335      -2.282531518185383E-5
-114.70129446605137       -2.220446049250313E-16   -17.72208250149462       5.412348359519854E-5
-108.99999999999999       0                        -24.294244972267098      1.1313556126958945E-4
-110.93298607806983       0                        -21.34010614764916       4.811285707203326E-5
-108.99999999999999       0                        -20.62907011941833       -2.504596303743648E-5
-116.99999999999999       -6.661338147750939E-16   -15.90443467194235       7.143784357243705E-6
-108.99999999999999       2.220446049250313E-16    -18.01156274349962       9.272708748091441E-5
-108.99999999999999       0                        -15.545044751901248      5.157398918619893E-6
-110.62169666412852       2.220446049250313E-16    -16.086726468620345      -1.7457470181550848E-5
-122.6794715481182        0                        -13.149321459840243      -1.5823611171068362E-5
-117.00000000000001       -2.220446049250313E-16   -13.11303041358667       1.1806906326556567E-5
-115.06792334042166       2.220446049250313E-16    -14.929988372104924      1.9511179797808135E-5
-113                      2.220446049250313E-16    -16.066698212287083      6.38209376224819E-5
-121.60374805018603       1.1102230246251565E-16   -10.69969554356784       -2.814985091502079E-5
-117.00000000000007       0                        -9.02193272607258        4.072287106611443E-6
-118.25978364960315       2.220446049250313E-16    -6.881087701647191       1.3417167991414027E-6
-115.40440293828054       0                        -11.335504023289         -9.937456821772125E-6
-115.91806718583025       0                        -7.755875158483691       -3.547468139149625E-6
-125                      3.3306690738754696E-16   -11.144330747049894      -2.1146690305444483E-5
-125                      0                        -4.327917064694874       2.2516063457205134E-5
-110.75819663110349       -3.3306690738754696E-16  -67.92475420851014       2.4597132862952392E-5
-117.13430950832517       6.661338147750939E-16    -68.25365247040455       5.166334298047133E-6
-101.09127826781062       0                        -65.25000000000001       -3.0343807305546764E-6
-99.62668172900904        1.1102230246251565E-16   -63.12742077986298       -2.1292044352302605E-5
-106.26331834949637       0                        -66.84315383224958       2.3728418080334228E-5
-99.87235656204346        0                        -65.25000000000003       -7.238785453840329E-5
-98.81872380238468        0                        -64.56761105466187       -3.108529353113958E-5
-109.78361600880629       -1.1102230246251565E-16  -67.7207018278579        9.968431754551912E-6
-109.81079810362253       -6.661338147750939E-16   -68.98977881436002       5.566136911527617E-6
-107.39803366808128       0                        -75                      0
-99.06458280137886        0                        -40.527031161779846      4.347681257758988E-5
-95.21801623495756        -1.1102230246251565E-16  -40.50102481175073       2.4488084053130623E-4
-97.21767399835352        0                        -43.92413736133928       -1.4162035535943336E-4
-91.21280065109896        0                        -40.05462561048767       -2.3639042084224926E-4
-92.90063514900973        0                        -40.24274231880371       3.623361417304467E-5
-92.46083539773807        4.163336342344337E-17    -36.18943071018574       2.3470620614505144E-5
-90.40223430274996        0                        -40.06466876976909       -4.084505235178012E-5
-90.80887515714           0                        -41.39657777792129       -1.3294603143576057E-4
-94.5175708108462         2.220446049250313E-16    -43.70545622882659       1.8124343316372368E-4
-91.47358337501026        -6.938893903907228E-17   -67.55814274961509       5.292413655008524E-6
-98.59705050212192        0                        -75                      -1.0811398644588154E-5
-98.85406678963918        0                        -57.131228665444254      1.4746873905537229E-5
-101.8413007233163        -4.440892098500626E-16   -53.012036070901914      5.530765349887641E-5
-95.50783642098705        4.440892098500626E-16    -58.904353355467684      -6.468001247196598E-5
-92.25818324160436        7.771561172376096E-16    -56.633257987572364      2.2823472420308603E-5
-93.11946720723301        0                        -56.05133950780831       -8.733188573103243E-5
-92.03076769169866        4.440892098500626E-16    -60.93617697700228       -1.2386552703248963E-5
-90.99031897155713        -1.6653345369377348E-16  -67.57894398556711       -1.5547038437362338E-5
-91.03162401735831        -4.3021142204224816E-16  -67.66046806178386       -4.7106868796708735E-5
-88.44608481497733        3.3306690738754696E-16   -62.81066868659309       2.3590968605499968E-5
-97.16887931315732        -4.440892098500626E-16   -48.64855193122085       -6.255518052835092E-5
-94.0206452643849         4.440892098500626E-16    -51.091557440270165      7.573554939599321E-5
-93.12928180739682        0                        -47.42899821166235       4.380339651717018E-4
-98.85440138292051        -4.440892098500626E-16   -51.206421239639894      -1.5352660378123084E-4
-96.49805771785611        0                        -54.625153416113804      -1.6558282541451896E-4
-92.68627546278077        0                        -55.287209751794556      1.764658405361581E-5
-85.35164814940624        -1.1102230246251565E-16  -40.431337536157706      -4.8032586843997963E-4
-85.6142525326404         0                        -40.99006004009311       1.0512922964823478E-4
-86.17567449333535        0                        -40.0696877843947        -1.249160788550598E-4
-86.47718590564676        0                        -41.39326885602917       3.4144110648847896E-5
-92.50142304036561        -3.0184188481996443E-16  -36.00000000000001       -3.8883163078044355E-5
-88.87500574008119        -4.440892098500626E-16   -36.000000000000014      6.914626237947256E-5
-108.99999999999999       1.6653345369377348E-16   -11.78505871525866       -5.306965306254678E-6
-109.50664684199245       0                        -10.928996842717016      -8.52306665260639E-5
-110.70473302720431       0                        -10.968914935977116      5.768360061178467E-6
-111.62703401931232       -5.551115123125783E-17   -9.393550316785255       6.135786707379177E-5
-108.99999999999999       -3.3306690738754696E-16  -10.39453750153383       -6.884899986900278E-5
-117.00000000000004       -1.1102230246251565E-16  -6.203692423424673       -4.4704941769647196E-5
-121.46061534081483       -2.220446049250313E-16   -3.5554848774833365      5.631329948828176E-6
-125                      -2.220446049250313E-16   0.4285693931397987       2.558586697660938E-5
-109.38840674301287       -3.3306690738754696E-16  -10.05508028930045       -4.125045397698047E-5
-116.99999999999997       2.220446049250313E-16    -0.037207225876260575    2.4146915963391068E-5
-121.61163784959865       4.440892098500626E-16    3.5237396819717293       1.4935614069196547E-5
-116.99999999999996       -2.220446049250313E-16   7.140409123812158        -1.661225456177495E-5
-110.97762349459926       0                        -7.07143709126339        -1.6963406638489476E-5
-113.54994074758532       -1.1102230246251565E-16  -3.5283041178532177      2.4516792684328615E-5
-113.01848412331263       0                        -4.505139997859315       1.2053784208431256E-4
-112.29124889686011       0                        -3.9521663254502313      6.091896853855044E-5
-108.99999999999999       1.1102230246251565E-16   -9.487016064805085       -7.353446804590773E-5
-108.99999999999999       0                        -5.212635772891996       9.822777918804211E-6
-113.40552971120346       -5.551115123125783E-17   3.1859017555734623       -6.638153056973862E-5
-114.3899754208266        0                        5.377779331900673        4.841550320428579E-5
-112.99999999999999       -5.551115123125783E-17   4.098602159687542        -4.588264557200489E-6
-125                      -6.661338147750939E-16   4.470460980874188        2.423923552787097E-5
-117.83384396909427       0                        7.8846575094067095       8.67039114094501E-6
-116.99999999999996       -4.440892098500626E-16   8.03856823326757         -1.3982285248178469E-5
-82.4745837033046         2.3592239273284576E-16   -36.00000000000001       -4.47836697369296E-4
-82.57230258232728        9.020562075079397E-17    -36.257125446054644      9.023532402703261E-5
-82.40090333464553        1.734723475976807E-16    -36.00000000000001       -8.766020600662303E-4
-84.97394456054184        0                        -41.213199704312075      -2.0896748840554814E-4
-90.8392112648688         -2.220446049250313E-16   -45.173044052601824      -1.222124980985665E-5
-88.10927325166494        -4.440892098500626E-16   -50.143785519958755      -8.769108284421778E-5
-91.04654738111378        4.440892098500626E-16    -47.674891804368514      -1.5628052871804234E-4
-91.91897896917405        -2.220446049250313E-16   -54.12531299978734       -8.225400241330372E-5
-91.95338304155918        7.771561172376096E-16    -55.84147869050335       1.5527494821541578E-4
-86.39799967528329        -1.3322676295501878E-15  -54.69176437554317       5.766078295015371E-5
-91.78545212516065        5.551115123125783E-16    -56.47219088472211       1.1617912695362556E-4
-87.36280786328467        6.661338147750939E-16    -63.007342837174264      -8.766956656087593E-6
-83.75110765751089        0                        -45.739855474702225      -1.869018756807946E-4
-83.3280347130954         2.220446049250313E-16    -50.00554584593422       -7.337487595063994E-5
-82.29635623337519        4.440892098500626E-16    -51.15506971216685       -2.0985857420260703E-4
-86.36290045035187        3.3306690738754696E-16   -62.33424159467466       -9.688591646243446E-5
-90.94241778252294        4.440892098500626E-16    -56.393933460734544      9.480428691569562E-5
-83.88751434852549        -4.440892098500626E-16   -56.71578732300779       -5.7376323542994575E-5
-81.75339887827137        3.3306690738754696E-16   -51.90217774397344       9.442070139268935E-6
-80.70596366469712        3.3306690738754696E-16   -60.03790232547908       1.3005984152292765E-5
-90.94063566837917        -2.220446049250313E-16   -67.66394407850765       5.43999501523565E-5
-87.53387673819726        0                        -63.677422181218304      5.409524898296588E-6
-81.01399614825633        -1.1102230246251565E-16  -61.407338917075506      3.305571342292795E-5
-86.32453438633513        -1.1102230246251565E-16  -63.920063527568786      -2.462271200372466E-5
-90.80057225013675        -2.498001805406602E-16   -67.63387585209162       8.868632264896398E-5
-84.51625093725818        -2.220446049250313E-16   -67.99161633641734       -5.462288151720451E-5
-89.79606733616257        4.440892098500626E-16    -75                      -2.907601668267098E-6
-90.95588341305255        -2.3592239273284576E-16  -67.7929258642408        2.0327593670922555E-5
-86.67611490527034        2.220446049250313E-16    -71.27073079385238       2.03661218085786E-5
-80.86191947919619        2.220446049250313E-16    -65.6709763687023        5.398272166276886E-5
-80.99508417020321        1.4210854715202004E-14   -75                      1.4396684008822374E-4
-82.39285486463228        2.498001805406602E-16    -36.08897234565527       -3.5110331839722836E-4
-81.70627760918688        3.3306690738754696E-16   -49.62450177960999       -1.636499494846002E-4
-81.05935569093674        2.220446049250313E-16    -43.66524268724536       1.3330868665080127E-4
-116.99999999999997       0                        8.942845341409543        2.1318638602051652E-5
-123.53479659475008       1.1102230246251565E-16   13.377084905027054       -1.7658042723667427E-5
-120.31688810465127       -2.220446049250313E-16   10.305979070992695       -3.5588544022252525E-5
-117                      8.881784197001252E-16    12.90859289819025        -1.5673750146942322E-5
-125                      -2.220446049250313E-16   13.176700630347735       1.2543410481926395E-5
-125                      0                        10.477439435193281       -3.385865079691076E-5
-114.03268247459653       2.220446049250313E-16    11.850308159982033       -3.0770759596277286E-7
-112.99999999999999       0                        5.870587786231107        -2.7877690856734387E-5
-116.22200713780606       0                        8.348579509322617        2.8539128290850266E-6
-112.99999999999994       -2.220446049250313E-16   10.956451581476143       -4.9280859262722894E-5
-112.99999999999997       0                        15.062009898893415       -5.9501749840510936E-5
-113.78472922686836       2.220446049250313E-16    17.480049042371135       -3.412427881812785E-5
-113                      0                        18.135019352763575       -4.689912316574775E-6
-112.99999999999994       -6.661338147750939E-16   12.113664788441165       -2.275729580160915E-5
-112.71675309581633       0                        3.56391668968467         1.079228222718857E-4
-112.43413308901523       0                        4.056938911530295        8.050673751348671E-5
-108.99999999999999       -3.552713678800501E-15   0                        -4.856624184768066E-5
-111.31614583973746       3.3306690738754696E-16   17.04318210536022        -1.2403567409210306E-4
-110.1016452782651        5.551115123125783E-17    10.994652464528027       6.986234119750539E-5
-108.99999999999999       0                        11.70575502773291        -4.364231350470833E-5
-108.99999999999997       0                        10.677735779742243       -4.505349810163462E-5
-108.99999999999999       0                        9.86359319646574         6.440043285580391E-5
-108.99999999999999       0                        5.391489854969906        1.91176227104395E-6
-75.4607593179711         1.457167719820518E-16    -41.409968916327436      1.0365997890017245E-4
-82.34062932706614        2.636779683484747E-16    -36.00000000000001       -4.685156337861836E-4
-73.65214839919878        -4.440892098500626E-16   -35.14887974157764       0.0011668046350690974
-77                       -5.551115123125783E-17   -31.02953616610431       5.731835889347328E-4
-77                       4.440892098500626E-16    -36.00000000000001       -2.3917069706084075E-4
-75.44012184029698        -1.214306433183765E-16   -41.37763227973134       -2.4574555146468843E-4
-75.43935625958234        -3.7470027081099033E-16  -41.397693208949306      -5.991960476338991E-4
-74.81379552774182        -2.220446049250313E-16   -26.734151771261857      8.639156894727721E-4
-77                       -2.498001805406602E-16   -30.1217416086539        2.2483609818033023E-4
-77                       2.220446049250313E-16    -25.454239155551434      -7.771453215423595E-4
-69.92920806276587        6.661338147750939E-16    -48.48777675398283       9.446931235512284E-4
-73.76362513766605        4.440892098500626E-16    -46.395828102379944      -2.6073299016484254E-4
-74.58195007432481        1.1102230246251565E-16   -50.60076483861959       -8.15046860285133E-4
-76.36729533836815        4.440892098500626E-16    -45.5379341571414        -3.2256968486679076E-4
-80.2918339133659         0                        -50.22359687500887       -3.1659820731112255E-4
-75.42700259493257        5.898059818321144E-17    -41.422860477150785      4.0384172739484504E-4
-81.63582088632305        4.440892098500626E-16    -51.013521061241875      -8.618134890434283E-5
-75.83750377945209        2.220446049250313E-16    -51.90934918867318       -2.718505663667753E-4
-68.05182615569545        0                        -56.34119739448725       6.063741297662051E-4
-68.48631008141989        0                        -56.187111388950704      2.6761265234436345E-4
-68.12894233378839        0                        -56.42551585419583       2.181712654356625E-4
-68.2508665890895         0                        -56.52346240301094       6.879603887537404E-4
-68.11293765388159        0                        -56.50576066750073       5.983125672990353E-4
-75.23072384419618        1.1102230246251565E-16   -53.93446828114145       2.710949060766225E-4
-75.33652107833072        0                        -59.265799671372186      1.1584647570550417E-5
-76.65141180894884        -2.220446049250313E-16   -57.35307071713845       9.049750111363771E-6
-79.32705825540833        0                        -59.83962168290782       -2.047955107891405E-4
-77.71454208266897        0                        -62.27395129303321       -3.005419135171685E-4
-80.5527040295358         -1.1102230246251565E-16  -52.48319413879874       6.129283002044704E-5
-68.35789545284368        -6.938893903907228E-18   -57.14863319628269       -7.794962866053876E-5
-72.31741400627274        -1.1102230246251565E-16  -63.657596934968716      1.128302911044792E-4
-74.68042395857019        4.440892098500626E-16    -52.49380190184905       -4.285395667829178E-4
-79.89609901103277        2.220446049250313E-16    -60.976698328344916      -8.220541228310497E-5
-78.30338277830955        0                        -65.87859002512364       -4.810505689147716E-5
-71.64751465276646        -3.3306690738754696E-16  -65.28543549905494       -7.728406375642286E-5
-61.85057537916039        4.440892098500626E-16    -54.532854854555836      7.461930865284165E-5
-65.33507186069397        4.440892098500626E-16    -52.16420427079966       9.988530443918171E-4
-67.89344277290346        1.3877787807814457E-17   -56.385129853319846      -1.6843302380615104E-4
-63.00519288533189        -5.551115123125783E-17   -59.74431969874691       7.074640062019129E-4
-61.98912625892169        0                        -58.71247397538755       0.0010670080913498638
-62.208183407685645       0                        -60.04542126934372       9.510266060903271E-4
-63.99782492268396        2.220446049250313E-16    -69.29643921445876       2.137707879682164E-4
-70.14296280559915        0                        -72.1673232615411        -2.838305792365218E-4
-70.77481710810477        2.220446049250313E-16    -65.93764879483966       2.4952252795368674E-5
-71.32560444550403        0                        -66.52173913043477       3.8039534866210234E-5
-72.19410100424386        0                        -75                      -1.542822740698392E-5
-76.97112321614492        2.220446049250313E-16    -68.8594286530585        1.9491449589366486E-4
-63.02412062482033        0                        -67.59616778856567       -5.429834111958481E-5
-66.30731881384199        2.220446049250313E-16    -63.097726285247305      -2.635606641162405E-4
-70.01152744293044        -1.1102230246251565E-16  -65.1282073164043        5.669764414453127E-5
-62.83915198142161        2.220446049250313E-16    -63.884820520536294      4.3543635542902663E-4
-28.70065195070128        0                        -29.68762128470871       4.528002302172258E-4
-29.246994194767094       0                        -31.23970322495943       -7.056207251418221E-4
-28.14822079241208        -2.220446049250313E-16   -30.97075817679138       3.065614851745074E-4
-28.069251978288722       -2.220446049250313E-16   -31.965731708670212      3.571012587252863E-4
-27.14495667790306        1.1102230246251565E-16   -29.45058827829179       -0.00201097007841419
-26.42386059559974        -1.1102230246251565E-16  -28.357966163745267      -4.1749137989003103E-4
-27.62957140233141        -1.1102230246251565E-16  -27.893208027642807      4.1808278262719657E-4
-75.4290640096579         -1.3877787807814457E-16  -41.400471966688976      -9.543468789427009E-5
-66.4704350496815         -4.440892098500626E-16   -49.175509929834064      3.040321740794428E-4
-26.826191142613926       1.1102230246251565E-16   -26.19723050188319       -0.0016387788310812633
-25.79433226977939        1.1102230246251565E-16   -27.404089714537996      0.0020599977840364877
-26.127355830541838       1.1102230246251565E-16   -25.01026842936192       -1.854102975930776E-4
-24.866767606604604       2.220446049250313E-16    -26.209521561015727      -2.132541346299196E-4